  12  12   1   0
  0.1383644E+02  0.5496276E-09  0.5496276E-09  0.5496276E-09  0.2500000E-15
  1.000000000000000E-004
  CAR 
 CeO2 Bulk                               
     13.94882689    -30.32448541  301      5.54612116      1.00000000
    -30.324  0.0000E+00  0.0000E+00  0.0000E+00  0.0000E+00
    -30.177  0.0000E+00  0.0000E+00  0.0000E+00  0.0000E+00
    -30.029  0.0000E+00  0.0000E+00  0.0000E+00  0.0000E+00
    -29.882  0.0000E+00  0.0000E+00  0.0000E+00  0.0000E+00
    -29.734  0.0000E+00  0.0000E+00  0.0000E+00  0.0000E+00
    -29.587  0.0000E+00  0.0000E+00  0.0000E+00  0.0000E+00
    -29.439  0.0000E+00  0.0000E+00  0.0000E+00  0.0000E+00
    -29.291  0.0000E+00  0.0000E+00  0.0000E+00  0.0000E+00
    -29.144  0.0000E+00  0.0000E+00  0.0000E+00  0.0000E+00
    -28.996  0.0000E+00  0.0000E+00  0.0000E+00  0.0000E+00
    -28.849  0.1691E-16  0.1688E-16  0.2496E-17  0.2491E-17
    -28.701  0.2954E-10  0.2951E-10  0.4359E-11  0.4355E-11
    -28.554  0.9497E-06  0.9490E-06  0.1402E-06  0.1401E-06
    -28.406  0.7470E-03  0.7466E-03  0.1104E-03  0.1103E-03
    -28.258  0.3186E-01  0.3185E-01  0.4812E-02  0.4811E-02
    -28.111  0.1610E+00  0.1610E+00  0.2857E-01  0.2857E-01
    -27.963  0.7566E-01  0.7567E-01  0.3974E-01  0.3974E-01
    -27.816  0.1779E-02  0.1780E-02  0.4000E-01  0.4000E-01
    -27.668  0.1049E-05  0.1050E-05  0.4000E-01  0.4000E-01
    -27.521  0.1093E-10  0.1094E-10  0.4000E-01  0.4000E-01
    -27.373  0.0000E+00  0.0000E+00  0.4000E-01  0.4000E-01
    -27.225  0.0000E+00  0.0000E+00  0.4000E-01  0.4000E-01
    -27.078  0.0000E+00  0.0000E+00  0.4000E-01  0.4000E-01
    -26.930  0.0000E+00  0.0000E+00  0.4000E-01  0.4000E-01
    -26.783  0.0000E+00  0.0000E+00  0.4000E-01  0.4000E-01
    -26.635  0.0000E+00  0.0000E+00  0.4000E-01  0.4000E-01
    -26.487  0.0000E+00  0.0000E+00  0.4000E-01  0.4000E-01
    -26.340  0.0000E+00  0.0000E+00  0.4000E-01  0.4000E-01
    -26.192  0.0000E+00  0.0000E+00  0.4000E-01  0.4000E-01
    -26.045  0.0000E+00  0.0000E+00  0.4000E-01  0.4000E-01
    -25.897  0.0000E+00  0.0000E+00  0.4000E-01  0.4000E-01
    -25.750  0.0000E+00  0.0000E+00  0.4000E-01  0.4000E-01
    -25.602  0.0000E+00  0.0000E+00  0.4000E-01  0.4000E-01
    -25.454  0.0000E+00  0.0000E+00  0.4000E-01  0.4000E-01
    -25.307  0.0000E+00  0.0000E+00  0.4000E-01  0.4000E-01
    -25.159  0.0000E+00  0.0000E+00  0.4000E-01  0.4000E-01
    -25.012  0.0000E+00  0.0000E+00  0.4000E-01  0.4000E-01
    -24.864  0.0000E+00  0.0000E+00  0.4000E-01  0.4000E-01
    -24.717  0.0000E+00  0.0000E+00  0.4000E-01  0.4000E-01
    -24.569  0.0000E+00  0.0000E+00  0.4000E-01  0.4000E-01
    -24.421  0.0000E+00  0.0000E+00  0.4000E-01  0.4000E-01
    -24.274  0.0000E+00  0.0000E+00  0.4000E-01  0.4000E-01
    -24.126  0.0000E+00  0.0000E+00  0.4000E-01  0.4000E-01
    -23.979  0.0000E+00  0.0000E+00  0.4000E-01  0.4000E-01
    -23.831  0.0000E+00  0.0000E+00  0.4000E-01  0.4000E-01
    -23.683  0.0000E+00  0.0000E+00  0.4000E-01  0.4000E-01
    -23.536  0.0000E+00  0.0000E+00  0.4000E-01  0.4000E-01
    -23.388  0.0000E+00  0.0000E+00  0.4000E-01  0.4000E-01
    -23.241  0.0000E+00  0.0000E+00  0.4000E-01  0.4000E-01
    -23.093  0.0000E+00  0.0000E+00  0.4000E-01  0.4000E-01
    -22.946  0.0000E+00  0.0000E+00  0.4000E-01  0.4000E-01
    -22.798  0.0000E+00  0.0000E+00  0.4000E-01  0.4000E-01
    -22.650  0.0000E+00  0.0000E+00  0.4000E-01  0.4000E-01
    -22.503  0.0000E+00  0.0000E+00  0.4000E-01  0.4000E-01
    -22.355  0.0000E+00  0.0000E+00  0.4000E-01  0.4000E-01
    -22.208  0.0000E+00  0.0000E+00  0.4000E-01  0.4000E-01
    -22.060  0.0000E+00  0.0000E+00  0.4000E-01  0.4000E-01
    -21.913  0.0000E+00  0.0000E+00  0.4000E-01  0.4000E-01
    -21.765  0.0000E+00  0.0000E+00  0.4000E-01  0.4000E-01
    -21.617  0.0000E+00  0.0000E+00  0.4000E-01  0.4000E-01
    -21.470  0.0000E+00  0.0000E+00  0.4000E-01  0.4000E-01
    -21.322  0.0000E+00  0.0000E+00  0.4000E-01  0.4000E-01
    -21.175  0.0000E+00  0.0000E+00  0.4000E-01  0.4000E-01
    -21.027  0.0000E+00  0.0000E+00  0.4000E-01  0.4000E-01
    -20.880  0.0000E+00  0.0000E+00  0.4000E-01  0.4000E-01
    -20.732  0.0000E+00  0.0000E+00  0.4000E-01  0.4000E-01
    -20.584  0.0000E+00  0.0000E+00  0.4000E-01  0.4000E-01
    -20.437  0.0000E+00  0.0000E+00  0.4000E-01  0.4000E-01
    -20.289  0.0000E+00  0.0000E+00  0.4000E-01  0.4000E-01
    -20.142  0.0000E+00  0.0000E+00  0.4000E-01  0.4000E-01
    -19.994  0.0000E+00  0.0000E+00  0.4000E-01  0.4000E-01
    -19.846  0.0000E+00  0.0000E+00  0.4000E-01  0.4000E-01
    -19.699  0.0000E+00  0.0000E+00  0.4000E-01  0.4000E-01
    -19.551  0.0000E+00  0.0000E+00  0.4000E-01  0.4000E-01
    -19.404  0.0000E+00  0.0000E+00  0.4000E-01  0.4000E-01
    -19.256  0.0000E+00  0.0000E+00  0.4000E-01  0.4000E-01
    -19.109  0.0000E+00  0.0000E+00  0.4000E-01  0.4000E-01
    -18.961  0.0000E+00  0.0000E+00  0.4000E-01  0.4000E-01
    -18.813  0.0000E+00  0.0000E+00  0.4000E-01  0.4000E-01
    -18.666  0.0000E+00  0.0000E+00  0.4000E-01  0.4000E-01
    -18.518  0.0000E+00  0.0000E+00  0.4000E-01  0.4000E-01
    -18.371  0.0000E+00  0.0000E+00  0.4000E-01  0.4000E-01
    -18.223  0.0000E+00  0.0000E+00  0.4000E-01  0.4000E-01
    -18.076  0.0000E+00  0.0000E+00  0.4000E-01  0.4000E-01
    -17.928  0.0000E+00  0.0000E+00  0.4000E-01  0.4000E-01
    -17.780  0.0000E+00  0.0000E+00  0.4000E-01  0.4000E-01
    -17.633  0.0000E+00  0.0000E+00  0.4000E-01  0.4000E-01
    -17.485  0.0000E+00  0.0000E+00  0.4000E-01  0.4000E-01
    -17.338  0.0000E+00  0.0000E+00  0.4000E-01  0.4000E-01
    -17.190  0.0000E+00  0.0000E+00  0.4000E-01  0.4000E-01
    -17.042  0.0000E+00  0.0000E+00  0.4000E-01  0.4000E-01
    -16.895  0.0000E+00  0.0000E+00  0.4000E-01  0.4000E-01
    -16.747  0.0000E+00  0.0000E+00  0.4000E-01  0.4000E-01
    -16.600  0.0000E+00  0.0000E+00  0.4000E-01  0.4000E-01
    -16.452  0.0000E+00  0.0000E+00  0.4000E-01  0.4000E-01
    -16.305  0.0000E+00  0.0000E+00  0.4000E-01  0.4000E-01
    -16.157  0.0000E+00  0.0000E+00  0.4000E-01  0.4000E-01
    -16.009  0.0000E+00  0.0000E+00  0.4000E-01  0.4000E-01
    -15.862  0.0000E+00  0.0000E+00  0.4000E-01  0.4000E-01
    -15.714  0.0000E+00  0.0000E+00  0.4000E-01  0.4000E-01
    -15.567  0.0000E+00  0.0000E+00  0.4000E-01  0.4000E-01
    -15.419  0.0000E+00  0.0000E+00  0.4000E-01  0.4000E-01
    -15.272  0.0000E+00  0.0000E+00  0.4000E-01  0.4000E-01
    -15.124  0.0000E+00  0.0000E+00  0.4000E-01  0.4000E-01
    -14.976  0.0000E+00  0.0000E+00  0.4000E-01  0.4000E-01
    -14.829  0.0000E+00  0.0000E+00  0.4000E-01  0.4000E-01
    -14.681  0.0000E+00  0.0000E+00  0.4000E-01  0.4000E-01
    -14.534  0.0000E+00  0.0000E+00  0.4000E-01  0.4000E-01
    -14.386  0.0000E+00  0.0000E+00  0.4000E-01  0.4000E-01
    -14.239  0.7259E-15  0.7262E-15  0.4000E-01  0.4000E-01
    -14.091  0.3427E-09  0.3427E-09  0.4000E-01  0.4000E-01
    -13.943  0.2414E-05  0.2415E-05  0.4000E-01  0.4000E-01
    -13.796  0.3386E-03  0.3386E-03  0.4005E-01  0.4005E-01
    -13.648  0.4046E-02  0.4046E-02  0.4065E-01  0.4065E-01
    -13.501  0.1732E-01  0.1732E-01  0.4320E-01  0.4320E-01
    -13.353  0.3162E-01  0.3162E-01  0.4787E-01  0.4787E-01
    -13.205  0.7020E-01  0.7020E-01  0.5823E-01  0.5823E-01
    -13.058  0.7669E-01  0.7669E-01  0.6955E-01  0.6955E-01
    -12.910  0.2216E-01  0.2216E-01  0.7282E-01  0.7282E-01
    -12.763  0.2600E-01  0.2600E-01  0.7665E-01  0.7665E-01
    -12.615  0.2935E-01  0.2935E-01  0.8098E-01  0.8099E-01
    -12.468  0.3033E-01  0.3033E-01  0.8546E-01  0.8546E-01
    -12.320  0.2229E-01  0.2229E-01  0.8875E-01  0.8875E-01
    -12.172  0.2402E-01  0.2402E-01  0.9229E-01  0.9229E-01
    -12.025  0.2456E-01  0.2456E-01  0.9592E-01  0.9592E-01
    -11.877  0.2642E-01  0.2642E-01  0.9982E-01  0.9982E-01
    -11.730  0.2292E-01  0.2292E-01  0.1032E+00  0.1032E+00
    -11.582  0.2511E-01  0.2511E-01  0.1069E+00  0.1069E+00
    -11.435  0.2334E-01  0.2334E-01  0.1104E+00  0.1104E+00
    -11.287  0.8887E-02  0.8887E-02  0.1117E+00  0.1117E+00
    -11.139  0.1289E-01  0.1289E-01  0.1136E+00  0.1136E+00
    -10.992  0.1662E-01  0.1662E-01  0.1160E+00  0.1160E+00
    -10.844  0.5668E-01  0.5668E-01  0.1244E+00  0.1244E+00
    -10.697  0.1139E+00  0.1139E+00  0.1412E+00  0.1412E+00
    -10.549  0.1006E+00  0.1006E+00  0.1560E+00  0.1560E+00
    -10.401  0.4189E-01  0.4189E-01  0.1622E+00  0.1622E+00
    -10.254  0.6446E-02  0.6447E-02  0.1632E+00  0.1632E+00
    -10.106  0.5816E-02  0.5816E-02  0.1640E+00  0.1640E+00
     -9.959  0.2995E-01  0.2995E-01  0.1685E+00  0.1685E+00
     -9.811  0.4890E-01  0.4890E-01  0.1757E+00  0.1757E+00
     -9.664  0.2304E-01  0.2304E-01  0.1791E+00  0.1791E+00
     -9.516  0.2318E-01  0.2318E-01  0.1825E+00  0.1825E+00
     -9.368  0.3289E-01  0.3289E-01  0.1874E+00  0.1874E+00
     -9.221  0.1233E-01  0.1233E-01  0.1892E+00  0.1892E+00
     -9.073  0.2009E-01  0.2009E-01  0.1921E+00  0.1921E+00
     -8.926  0.3335E-01  0.3335E-01  0.1971E+00  0.1971E+00
     -8.778  0.3276E-01  0.3276E-01  0.2019E+00  0.2019E+00
     -8.631  0.2184E-01  0.2184E-01  0.2051E+00  0.2051E+00
     -8.483  0.1827E-01  0.1827E-01  0.2078E+00  0.2078E+00
     -8.335  0.1467E-01  0.1467E-01  0.2100E+00  0.2100E+00
     -8.188  0.2451E-01  0.2451E-01  0.2136E+00  0.2136E+00
     -8.040  0.8352E-01  0.8352E-01  0.2259E+00  0.2259E+00
     -7.893  0.3831E-01  0.3831E-01  0.2316E+00  0.2316E+00
     -7.745  0.1744E-01  0.1744E-01  0.2341E+00  0.2341E+00
     -7.598  0.1696E-01  0.1696E-01  0.2367E+00  0.2367E+00
     -7.450  0.1316E-01  0.1316E-01  0.2386E+00  0.2386E+00
     -7.302  0.7186E-02  0.7186E-02  0.2397E+00  0.2397E+00
     -7.155  0.1826E-02  0.1826E-02  0.2399E+00  0.2399E+00
     -7.007  0.5098E-03  0.5098E-03  0.2400E+00  0.2400E+00
     -6.860  0.8442E-05  0.8442E-05  0.2400E+00  0.2400E+00
     -6.712  0.2702E-08  0.2702E-08  0.2400E+00  0.2400E+00
     -6.564  0.1316E-13  0.1316E-13  0.2400E+00  0.2400E+00
     -6.417  0.0000E+00  0.0000E+00  0.2400E+00  0.2400E+00
     -6.269  0.0000E+00  0.0000E+00  0.2400E+00  0.2400E+00
     -6.122  0.0000E+00  0.0000E+00  0.2400E+00  0.2400E+00
     -5.974  0.0000E+00  0.0000E+00  0.2400E+00  0.2400E+00
     -5.827  0.0000E+00  0.0000E+00  0.2400E+00  0.2400E+00
     -5.679  0.0000E+00  0.0000E+00  0.2400E+00  0.2400E+00
     -5.531  0.0000E+00  0.0000E+00  0.2400E+00  0.2400E+00
     -5.384  0.0000E+00  0.0000E+00  0.2400E+00  0.2400E+00
     -5.236  0.0000E+00  0.0000E+00  0.2400E+00  0.2400E+00
     -5.089  0.0000E+00  0.0000E+00  0.2400E+00  0.2400E+00
     -4.941  0.0000E+00  0.0000E+00  0.2400E+00  0.2400E+00
     -4.794  0.0000E+00  0.0000E+00  0.2400E+00  0.2400E+00
     -4.646  0.0000E+00  0.0000E+00  0.2400E+00  0.2400E+00
     -4.498  0.0000E+00  0.0000E+00  0.2400E+00  0.2400E+00
     -4.351  0.0000E+00  0.0000E+00  0.2400E+00  0.2400E+00
     -4.203  0.0000E+00  0.0000E+00  0.2400E+00  0.2400E+00
     -4.056  0.0000E+00  0.0000E+00  0.2400E+00  0.2400E+00
     -3.908  0.0000E+00  0.0000E+00  0.2400E+00  0.2400E+00
     -3.760  0.0000E+00  0.0000E+00  0.2400E+00  0.2400E+00
     -3.613  0.0000E+00  0.0000E+00  0.2400E+00  0.2400E+00
     -3.465  0.0000E+00  0.0000E+00  0.2400E+00  0.2400E+00
     -3.318  0.0000E+00  0.0000E+00  0.2400E+00  0.2400E+00
     -3.170  0.0000E+00  0.0000E+00  0.2400E+00  0.2400E+00
     -3.023  0.0000E+00  0.0000E+00  0.2400E+00  0.2400E+00
     -2.875  0.0000E+00  0.0000E+00  0.2400E+00  0.2400E+00
     -2.727  0.0000E+00  0.0000E+00  0.2400E+00  0.2400E+00
     -2.580  0.0000E+00  0.0000E+00  0.2400E+00  0.2400E+00
     -2.432  0.0000E+00  0.0000E+00  0.2400E+00  0.2400E+00
     -2.285  0.0000E+00  0.0000E+00  0.2400E+00  0.2400E+00
     -2.137  0.0000E+00  0.0000E+00  0.2400E+00  0.2400E+00
     -1.990  0.0000E+00  0.0000E+00  0.2400E+00  0.2400E+00
     -1.842  0.0000E+00  0.0000E+00  0.2400E+00  0.2400E+00
     -1.694  0.0000E+00  0.0000E+00  0.2400E+00  0.2400E+00
     -1.547  0.0000E+00  0.0000E+00  0.2400E+00  0.2400E+00
     -1.399  0.0000E+00  0.0000E+00  0.2400E+00  0.2400E+00
     -1.252  0.0000E+00  0.0000E+00  0.2400E+00  0.2400E+00
     -1.104  0.0000E+00  0.0000E+00  0.2400E+00  0.2400E+00
     -0.957  0.0000E+00  0.0000E+00  0.2400E+00  0.2400E+00
     -0.809  0.0000E+00  0.0000E+00  0.2400E+00  0.2400E+00
     -0.661  0.0000E+00  0.0000E+00  0.2400E+00  0.2400E+00
     -0.514  0.0000E+00  0.0000E+00  0.2400E+00  0.2400E+00
     -0.366  0.0000E+00  0.0000E+00  0.2400E+00  0.2400E+00
     -0.219  0.0000E+00  0.0000E+00  0.2400E+00  0.2400E+00
     -0.071  0.0000E+00  0.0000E+00  0.2400E+00  0.2400E+00
      0.077  0.0000E+00  0.0000E+00  0.2400E+00  0.2400E+00
      0.224  0.0000E+00  0.0000E+00  0.2400E+00  0.2400E+00
      0.372  0.0000E+00  0.0000E+00  0.2400E+00  0.2400E+00
      0.519  0.0000E+00  0.0000E+00  0.2400E+00  0.2400E+00
      0.667  0.1444E-16  0.1444E-16  0.2400E+00  0.2400E+00
      0.814  0.1965E-10  0.1967E-10  0.2400E+00  0.2400E+00
      0.962  0.3900E-06  0.3903E-06  0.2400E+00  0.2400E+00
      1.110  0.1321E-03  0.1322E-03  0.2400E+00  0.2400E+00
      1.257  0.1459E-02  0.1460E-02  0.2402E+00  0.2402E+00
      1.405  0.5818E-02  0.5819E-02  0.2411E+00  0.2411E+00
      1.552  0.1930E-01  0.1930E-01  0.2439E+00  0.2439E+00
      1.700  0.2916E-01  0.2916E-01  0.2482E+00  0.2482E+00
      1.847  0.2265E-01  0.2265E-01  0.2516E+00  0.2516E+00
      1.995  0.5719E-01  0.5719E-01  0.2600E+00  0.2600E+00
      2.143  0.5693E-01  0.5693E-01  0.2684E+00  0.2684E+00
      2.290  0.8435E-01  0.8435E-01  0.2809E+00  0.2809E+00
      2.438  0.9384E-01  0.9384E-01  0.2947E+00  0.2947E+00
      2.585  0.6164E-01  0.6164E-01  0.3038E+00  0.3038E+00
      2.733  0.5274E-01  0.5274E-01  0.3116E+00  0.3116E+00
      2.880  0.6648E-01  0.6648E-01  0.3214E+00  0.3214E+00
      3.028  0.4402E-01  0.4402E-01  0.3279E+00  0.3279E+00
      3.176  0.8156E-01  0.8156E-01  0.3399E+00  0.3399E+00
      3.323  0.5891E-01  0.5891E-01  0.3486E+00  0.3486E+00
      3.471  0.5289E-01  0.5289E-01  0.3564E+00  0.3564E+00
      3.618  0.5788E-01  0.5788E-01  0.3650E+00  0.3650E+00
      3.766  0.5038E-01  0.5038E-01  0.3724E+00  0.3724E+00
      3.914  0.6551E-01  0.6551E-01  0.3821E+00  0.3821E+00
      4.061  0.5770E-01  0.5770E-01  0.3906E+00  0.3906E+00
      4.209  0.9880E-01  0.9880E-01  0.4052E+00  0.4052E+00
      4.356  0.1061E+00  0.1061E+00  0.4208E+00  0.4208E+00
      4.504  0.7664E-01  0.7664E-01  0.4322E+00  0.4322E+00
      4.651  0.8596E-01  0.8596E-01  0.4448E+00  0.4448E+00
      4.799  0.1096E+00  0.1096E+00  0.4610E+00  0.4610E+00
      4.947  0.8969E-01  0.8969E-01  0.4743E+00  0.4743E+00
      5.094  0.3439E-01  0.3438E-01  0.4793E+00  0.4793E+00
      5.242  0.4521E-02  0.4521E-02  0.4800E+00  0.4800E+00
      5.389  0.3033E-04  0.3032E-04  0.4800E+00  0.4800E+00
      5.537  0.3950E-08  0.3949E-08  0.4800E+00  0.4800E+00
      5.684  0.7938E-14  0.7934E-14  0.4800E+00  0.4800E+00
      5.832  0.0000E+00  0.0000E+00  0.4800E+00  0.4800E+00
      5.980  0.0000E+00  0.0000E+00  0.4800E+00  0.4800E+00
      6.127  0.0000E+00  0.0000E+00  0.4800E+00  0.4800E+00
      6.275  0.0000E+00  0.0000E+00  0.4800E+00  0.4800E+00
      6.422  0.0000E+00  0.0000E+00  0.4800E+00  0.4800E+00
      6.570  0.0000E+00  0.0000E+00  0.4800E+00  0.4800E+00
      6.718  0.0000E+00  0.0000E+00  0.4800E+00  0.4800E+00
      6.865  0.1913E-11  0.2004E-11  0.4800E+00  0.4800E+00
      7.013  0.1697E-06  0.1760E-06  0.4800E+00  0.4800E+00
      7.160  0.2712E-03  0.2868E-03  0.4800E+00  0.4800E+00
      7.308  0.1579E-01  0.1820E-01  0.4824E+00  0.4827E+00
      7.455  0.1125E+00  0.1246E+00  0.4990E+00  0.5011E+00
      7.603  0.3358E+00  0.3430E+00  0.5485E+00  0.5517E+00
      7.751  0.3987E+00  0.4131E+00  0.6074E+00  0.6127E+00
      7.898  0.3031E+00  0.3188E+00  0.6521E+00  0.6598E+00
      8.046  0.1309E+00  0.1457E+00  0.6714E+00  0.6813E+00
      8.193  0.1907E-01  0.1938E-01  0.6742E+00  0.6841E+00
      8.341  0.7339E-02  0.2720E-03  0.6753E+00  0.6842E+00
      8.488  0.3934E-03  0.1278E-06  0.6754E+00  0.6842E+00
      8.636  0.4796E-06  0.1092E-11  0.6754E+00  0.6842E+00
      8.784  0.9365E-11  0.0000E+00  0.6754E+00  0.6842E+00
      8.931  0.2889E-17  0.2889E-17  0.6754E+00  0.6842E+00
      9.079  0.3683E-15  0.8539E-11  0.6754E+00  0.6842E+00
      9.226  0.3079E-09  0.3593E-06  0.6754E+00  0.6842E+00
      9.374  0.3857E-05  0.2442E-03  0.6754E+00  0.6842E+00
      9.521  0.9202E-03  0.3794E-02  0.6755E+00  0.6848E+00
      9.669  0.7748E-02  0.2412E-02  0.6766E+00  0.6851E+00
      9.817  0.4217E-02  0.5406E-04  0.6773E+00  0.6851E+00
      9.964  0.1309E-03  0.2476E-07  0.6773E+00  0.6851E+00
     10.112  0.1852E-02  0.3727E-05  0.6776E+00  0.6851E+00
     10.259  0.9524E-02  0.4076E-03  0.6790E+00  0.6852E+00
     10.407  0.4297E-02  0.3551E-02  0.6796E+00  0.6857E+00
     10.555  0.1046E-01  0.1352E-01  0.6811E+00  0.6877E+00
     10.702  0.2387E-01  0.2384E-01  0.6847E+00  0.6912E+00
     10.850  0.1820E-01  0.1372E-01  0.6873E+00  0.6932E+00
     10.997  0.2896E-01  0.2430E-01  0.6916E+00  0.6968E+00
     11.145  0.4148E-01  0.1614E-01  0.6977E+00  0.6992E+00
     11.292  0.1133E-01  0.1527E-02  0.6994E+00  0.6994E+00
     11.440  0.1829E-03  0.2515E-04  0.6994E+00  0.6994E+00
     11.588  0.1688E-03  0.2736E-03  0.6995E+00  0.6995E+00
     11.735  0.3486E-03  0.2152E-02  0.6995E+00  0.6998E+00
     11.883  0.7503E-03  0.1332E-02  0.6996E+00  0.7000E+00
     12.030  0.2225E-02  0.3388E-04  0.7000E+00  0.7000E+00
     12.178  0.2984E-03  0.1773E-07  0.7000E+00  0.7000E+00
     12.325  0.1036E-05  0.1438E-12  0.7000E+00  0.7000E+00
     12.473  0.6098E-10  0.0000E+00  0.7000E+00  0.7000E+00
     12.621  0.5236E-16  0.0000E+00  0.7000E+00  0.7000E+00
     12.768  0.0000E+00  0.0000E+00  0.7000E+00  0.7000E+00
     12.916  0.0000E+00  0.0000E+00  0.7000E+00  0.7000E+00
     13.063  0.0000E+00  0.0000E+00  0.7000E+00  0.7000E+00
     13.211  0.0000E+00  0.0000E+00  0.7000E+00  0.7000E+00
     13.359  0.0000E+00  0.0000E+00  0.7000E+00  0.7000E+00
     13.506  0.0000E+00  0.0000E+00  0.7000E+00  0.7000E+00
     13.654  0.0000E+00  0.0000E+00  0.7000E+00  0.7000E+00
     13.801  0.0000E+00  0.0000E+00  0.7000E+00  0.7000E+00
     13.949  0.0000E+00  0.0000E+00  0.7000E+00  0.7000E+00
     13.94882689    -30.32448541  301      5.54612116      1.00000000
    -30.324  0.0000E+00  0.0000E+00  0.0000E+00  0.0000E+00  0.0000E+00  0.0000E+00  0.0000E+00  0.0000E+00  0.0000E+00  0.0000E+00  0.0000E+00  0.0000E+00  0.0000E+00  0.0000E+00  0.0000E+00  0.0000E+00  0.0000E+00  0.0000E+00  0.0000E+00  0.0000E+00  0.0000E+00  0.0000E+00  0.0000E+00  0.0000E+00  0.0000E+00  0.0000E+00  0.0000E+00  0.0000E+00  0.0000E+00  0.0000E+00  0.0000E+00  0.0000E+00
    -30.177  0.0000E+00  0.0000E+00  0.0000E+00  0.0000E+00  0.0000E+00  0.0000E+00  0.0000E+00  0.0000E+00  0.0000E+00  0.0000E+00  0.0000E+00  0.0000E+00  0.0000E+00  0.0000E+00  0.0000E+00  0.0000E+00  0.0000E+00  0.0000E+00  0.0000E+00  0.0000E+00  0.0000E+00  0.0000E+00  0.0000E+00  0.0000E+00  0.0000E+00  0.0000E+00  0.0000E+00  0.0000E+00  0.0000E+00  0.0000E+00  0.0000E+00  0.0000E+00
    -30.029  0.0000E+00  0.0000E+00  0.0000E+00  0.0000E+00  0.0000E+00  0.0000E+00  0.0000E+00  0.0000E+00  0.0000E+00  0.0000E+00  0.0000E+00  0.0000E+00  0.0000E+00  0.0000E+00  0.0000E+00  0.0000E+00  0.0000E+00  0.0000E+00  0.0000E+00  0.0000E+00  0.0000E+00  0.0000E+00  0.0000E+00  0.0000E+00  0.0000E+00  0.0000E+00  0.0000E+00  0.0000E+00  0.0000E+00  0.0000E+00  0.0000E+00  0.0000E+00
    -29.882  0.0000E+00  0.0000E+00  0.0000E+00  0.0000E+00  0.0000E+00  0.0000E+00  0.0000E+00  0.0000E+00  0.0000E+00  0.0000E+00  0.0000E+00  0.0000E+00  0.0000E+00  0.0000E+00  0.0000E+00  0.0000E+00  0.0000E+00  0.0000E+00  0.0000E+00  0.0000E+00  0.0000E+00  0.0000E+00  0.0000E+00  0.0000E+00  0.0000E+00  0.0000E+00  0.0000E+00  0.0000E+00  0.0000E+00  0.0000E+00  0.0000E+00  0.0000E+00
    -29.734  0.0000E+00  0.0000E+00  0.0000E+00  0.0000E+00  0.0000E+00  0.0000E+00  0.0000E+00  0.0000E+00  0.0000E+00  0.0000E+00  0.0000E+00  0.0000E+00  0.0000E+00  0.0000E+00  0.0000E+00  0.0000E+00  0.0000E+00  0.0000E+00  0.0000E+00  0.0000E+00  0.0000E+00  0.0000E+00  0.0000E+00  0.0000E+00  0.0000E+00  0.0000E+00  0.0000E+00  0.0000E+00  0.0000E+00  0.0000E+00  0.0000E+00  0.0000E+00
    -29.587  0.0000E+00  0.0000E+00  0.0000E+00  0.0000E+00  0.0000E+00  0.0000E+00  0.0000E+00  0.0000E+00  0.0000E+00  0.0000E+00  0.0000E+00  0.0000E+00  0.0000E+00  0.0000E+00  0.0000E+00  0.0000E+00  0.0000E+00  0.0000E+00  0.0000E+00  0.0000E+00  0.0000E+00  0.0000E+00  0.0000E+00  0.0000E+00  0.0000E+00  0.0000E+00  0.0000E+00  0.0000E+00  0.0000E+00  0.0000E+00  0.0000E+00  0.0000E+00
    -29.439  0.0000E+00  0.0000E+00  0.0000E+00  0.0000E+00  0.0000E+00  0.0000E+00  0.0000E+00  0.0000E+00  0.0000E+00  0.0000E+00  0.0000E+00  0.0000E+00  0.0000E+00  0.0000E+00  0.0000E+00  0.0000E+00  0.0000E+00  0.0000E+00  0.0000E+00  0.0000E+00  0.0000E+00  0.0000E+00  0.0000E+00  0.0000E+00  0.0000E+00  0.0000E+00  0.0000E+00  0.0000E+00  0.0000E+00  0.0000E+00  0.0000E+00  0.0000E+00
    -29.291  0.0000E+00  0.0000E+00  0.0000E+00  0.0000E+00  0.0000E+00  0.0000E+00  0.0000E+00  0.0000E+00  0.0000E+00  0.0000E+00  0.0000E+00  0.0000E+00  0.0000E+00  0.0000E+00  0.0000E+00  0.0000E+00  0.0000E+00  0.0000E+00  0.0000E+00  0.0000E+00  0.0000E+00  0.0000E+00  0.0000E+00  0.0000E+00  0.0000E+00  0.0000E+00  0.0000E+00  0.0000E+00  0.0000E+00  0.0000E+00  0.0000E+00  0.0000E+00
    -29.144  0.0000E+00  0.0000E+00  0.0000E+00  0.0000E+00  0.0000E+00  0.0000E+00  0.0000E+00  0.0000E+00  0.0000E+00  0.0000E+00  0.0000E+00  0.0000E+00  0.0000E+00  0.0000E+00  0.0000E+00  0.0000E+00  0.0000E+00  0.0000E+00  0.0000E+00  0.0000E+00  0.0000E+00  0.0000E+00  0.0000E+00  0.0000E+00  0.0000E+00  0.0000E+00  0.0000E+00  0.0000E+00  0.0000E+00  0.0000E+00  0.0000E+00  0.0000E+00
    -28.996  0.0000E+00  0.0000E+00  0.0000E+00  0.0000E+00  0.0000E+00  0.0000E+00  0.0000E+00  0.0000E+00  0.0000E+00  0.0000E+00  0.0000E+00  0.0000E+00  0.0000E+00  0.0000E+00  0.0000E+00  0.0000E+00  0.0000E+00  0.0000E+00  0.0000E+00  0.0000E+00  0.0000E+00  0.0000E+00  0.0000E+00  0.0000E+00  0.0000E+00  0.0000E+00  0.0000E+00  0.0000E+00  0.0000E+00  0.0000E+00  0.0000E+00  0.0000E+00
    -28.849  0.1867E-17  0.1864E-17  0.6304E-20  0.6304E-20  0.6304E-20  0.6304E-20  0.6304E-20  0.6304E-20  0.0000E+00  0.0000E+00  0.0000E+00  0.0000E+00  0.0000E+00  0.0000E+00  0.0000E+00  0.0000E+00  0.0000E+00  0.0000E+00  0.0000E+00  0.0000E+00  0.0000E+00  0.0000E+00  0.0000E+00  0.0000E+00  0.0000E+00  0.0000E+00  0.0000E+00  0.0000E+00  0.0000E+00  0.0000E+00  0.0000E+00  0.0000E+00
    -28.701  0.3157E-11  0.3154E-11  0.1691E-13  0.1689E-13  0.1691E-13  0.1689E-13  0.1691E-13  0.1689E-13  0.0000E+00  0.0000E+00  0.0000E+00  0.0000E+00  0.0000E+00  0.0000E+00  0.0000E+00  0.0000E+00  0.0000E+00  0.0000E+00  0.0000E+00  0.0000E+00  0.0000E+00  0.0000E+00  0.0000E+00  0.0000E+00  0.0000E+00  0.0000E+00  0.0000E+00  0.0000E+00  0.0000E+00  0.0000E+00  0.0000E+00  0.0000E+00
    -28.554  0.9605E-07  0.9598E-07  0.8568E-09  0.8561E-09  0.8568E-09  0.8561E-09  0.8568E-09  0.8561E-09  0.0000E+00  0.0000E+00  0.0000E+00  0.0000E+00  0.0000E+00  0.0000E+00  0.0000E+00  0.0000E+00  0.0000E+00  0.0000E+00  0.0000E+00  0.0000E+00  0.0000E+00  0.0000E+00  0.0000E+00  0.0000E+00  0.0000E+00  0.0000E+00  0.0000E+00  0.0000E+00  0.0000E+00  0.0000E+00  0.0000E+00  0.0000E+00
    -28.406  0.6622E-04  0.6620E-04  0.1211E-05  0.1211E-05  0.1211E-05  0.1211E-05  0.1211E-05  0.1211E-05  0.0000E+00  0.0000E+00  0.0000E+00  0.0000E+00  0.0000E+00  0.0000E+00  0.0000E+00  0.0000E+00  0.0000E+00  0.0000E+00  0.0000E+00  0.0000E+00  0.0000E+00  0.0000E+00  0.0000E+00  0.0000E+00  0.0000E+00  0.0000E+00  0.0000E+00  0.0000E+00  0.0000E+00  0.0000E+00  0.0000E+00  0.0000E+00
    -28.258  0.1885E-02  0.1885E-02  0.1057E-03  0.1057E-03  0.1057E-03  0.1057E-03  0.1057E-03  0.1057E-03  0.0000E+00  0.0000E+00  0.0000E+00  0.0000E+00  0.0000E+00  0.0000E+00  0.0000E+00  0.0000E+00  0.0000E+00  0.0000E+00  0.0000E+00  0.0000E+00  0.0000E+00  0.0000E+00  0.0000E+00  0.0000E+00  0.0000E+00  0.0000E+00  0.0000E+00  0.0000E+00  0.0000E+00  0.0000E+00  0.0000E+00  0.0000E+00
    -28.111  0.4856E-02  0.4856E-02  0.8013E-03  0.8012E-03  0.8013E-03  0.8012E-03  0.8013E-03  0.8012E-03  0.0000E+00  0.0000E+00  0.0000E+00  0.0000E+00  0.0000E+00  0.0000E+00  0.0000E+00  0.0000E+00  0.0000E+00  0.0000E+00  0.0000E+00  0.0000E+00  0.0000E+00  0.0000E+00  0.0000E+00  0.0000E+00  0.0000E+00  0.0000E+00  0.0000E+00  0.0000E+00  0.0000E+00  0.0000E+00  0.0000E+00  0.0000E+00
    -27.963  0.1271E-02  0.1272E-02  0.4339E-03  0.4340E-03  0.4339E-03  0.4340E-03  0.4339E-03  0.4340E-03  0.0000E+00  0.0000E+00  0.0000E+00  0.0000E+00  0.0000E+00  0.0000E+00  0.0000E+00  0.0000E+00  0.0000E+00  0.0000E+00  0.0000E+00  0.0000E+00  0.0000E+00  0.0000E+00  0.0000E+00  0.0000E+00  0.0000E+00  0.0000E+00  0.0000E+00  0.0000E+00  0.0000E+00  0.0000E+00  0.0000E+00  0.0000E+00
    -27.816  0.1845E-04  0.1846E-04  0.1085E-04  0.1085E-04  0.1085E-04  0.1085E-04  0.1085E-04  0.1085E-04  0.0000E+00  0.0000E+00  0.0000E+00  0.0000E+00  0.0000E+00  0.0000E+00  0.0000E+00  0.0000E+00  0.0000E+00  0.0000E+00  0.0000E+00  0.0000E+00  0.0000E+00  0.0000E+00  0.0000E+00  0.0000E+00  0.0000E+00  0.0000E+00  0.0000E+00  0.0000E+00  0.0000E+00  0.0000E+00  0.0000E+00  0.0000E+00
    -27.668  0.7317E-08  0.7323E-08  0.6597E-08  0.6602E-08  0.6597E-08  0.6602E-08  0.6597E-08  0.6602E-08  0.0000E+00  0.0000E+00  0.0000E+00  0.0000E+00  0.0000E+00  0.0000E+00  0.0000E+00  0.0000E+00  0.0000E+00  0.0000E+00  0.0000E+00  0.0000E+00  0.0000E+00  0.0000E+00  0.0000E+00  0.0000E+00  0.0000E+00  0.0000E+00  0.0000E+00  0.0000E+00  0.0000E+00  0.0000E+00  0.0000E+00  0.0000E+00
    -27.521  0.5456E-13  0.5463E-13  0.6992E-13  0.7001E-13  0.6992E-13  0.7001E-13  0.6992E-13  0.7001E-13  0.0000E+00  0.0000E+00  0.0000E+00  0.0000E+00  0.0000E+00  0.0000E+00  0.0000E+00  0.0000E+00  0.0000E+00  0.0000E+00  0.0000E+00  0.0000E+00  0.0000E+00  0.0000E+00  0.0000E+00  0.0000E+00  0.0000E+00  0.0000E+00  0.0000E+00  0.0000E+00  0.0000E+00  0.0000E+00  0.0000E+00  0.0000E+00
    -27.373  0.0000E+00  0.0000E+00  0.0000E+00  0.0000E+00  0.0000E+00  0.0000E+00  0.0000E+00  0.0000E+00  0.0000E+00  0.0000E+00  0.0000E+00  0.0000E+00  0.0000E+00  0.0000E+00  0.0000E+00  0.0000E+00  0.0000E+00  0.0000E+00  0.0000E+00  0.0000E+00  0.0000E+00  0.0000E+00  0.0000E+00  0.0000E+00  0.0000E+00  0.0000E+00  0.0000E+00  0.0000E+00  0.0000E+00  0.0000E+00  0.0000E+00  0.0000E+00
    -27.225  0.0000E+00  0.0000E+00  0.0000E+00  0.0000E+00  0.0000E+00  0.0000E+00  0.0000E+00  0.0000E+00  0.0000E+00  0.0000E+00  0.0000E+00  0.0000E+00  0.0000E+00  0.0000E+00  0.0000E+00  0.0000E+00  0.0000E+00  0.0000E+00  0.0000E+00  0.0000E+00  0.0000E+00  0.0000E+00  0.0000E+00  0.0000E+00  0.0000E+00  0.0000E+00  0.0000E+00  0.0000E+00  0.0000E+00  0.0000E+00  0.0000E+00  0.0000E+00
    -27.078  0.0000E+00  0.0000E+00  0.0000E+00  0.0000E+00  0.0000E+00  0.0000E+00  0.0000E+00  0.0000E+00  0.0000E+00  0.0000E+00  0.0000E+00  0.0000E+00  0.0000E+00  0.0000E+00  0.0000E+00  0.0000E+00  0.0000E+00  0.0000E+00  0.0000E+00  0.0000E+00  0.0000E+00  0.0000E+00  0.0000E+00  0.0000E+00  0.0000E+00  0.0000E+00  0.0000E+00  0.0000E+00  0.0000E+00  0.0000E+00  0.0000E+00  0.0000E+00
    -26.930  0.0000E+00  0.0000E+00  0.0000E+00  0.0000E+00  0.0000E+00  0.0000E+00  0.0000E+00  0.0000E+00  0.0000E+00  0.0000E+00  0.0000E+00  0.0000E+00  0.0000E+00  0.0000E+00  0.0000E+00  0.0000E+00  0.0000E+00  0.0000E+00  0.0000E+00  0.0000E+00  0.0000E+00  0.0000E+00  0.0000E+00  0.0000E+00  0.0000E+00  0.0000E+00  0.0000E+00  0.0000E+00  0.0000E+00  0.0000E+00  0.0000E+00  0.0000E+00
    -26.783  0.0000E+00  0.0000E+00  0.0000E+00  0.0000E+00  0.0000E+00  0.0000E+00  0.0000E+00  0.0000E+00  0.0000E+00  0.0000E+00  0.0000E+00  0.0000E+00  0.0000E+00  0.0000E+00  0.0000E+00  0.0000E+00  0.0000E+00  0.0000E+00  0.0000E+00  0.0000E+00  0.0000E+00  0.0000E+00  0.0000E+00  0.0000E+00  0.0000E+00  0.0000E+00  0.0000E+00  0.0000E+00  0.0000E+00  0.0000E+00  0.0000E+00  0.0000E+00
    -26.635  0.0000E+00  0.0000E+00  0.0000E+00  0.0000E+00  0.0000E+00  0.0000E+00  0.0000E+00  0.0000E+00  0.0000E+00  0.0000E+00  0.0000E+00  0.0000E+00  0.0000E+00  0.0000E+00  0.0000E+00  0.0000E+00  0.0000E+00  0.0000E+00  0.0000E+00  0.0000E+00  0.0000E+00  0.0000E+00  0.0000E+00  0.0000E+00  0.0000E+00  0.0000E+00  0.0000E+00  0.0000E+00  0.0000E+00  0.0000E+00  0.0000E+00  0.0000E+00
    -26.487  0.0000E+00  0.0000E+00  0.0000E+00  0.0000E+00  0.0000E+00  0.0000E+00  0.0000E+00  0.0000E+00  0.0000E+00  0.0000E+00  0.0000E+00  0.0000E+00  0.0000E+00  0.0000E+00  0.0000E+00  0.0000E+00  0.0000E+00  0.0000E+00  0.0000E+00  0.0000E+00  0.0000E+00  0.0000E+00  0.0000E+00  0.0000E+00  0.0000E+00  0.0000E+00  0.0000E+00  0.0000E+00  0.0000E+00  0.0000E+00  0.0000E+00  0.0000E+00
    -26.340  0.0000E+00  0.0000E+00  0.0000E+00  0.0000E+00  0.0000E+00  0.0000E+00  0.0000E+00  0.0000E+00  0.0000E+00  0.0000E+00  0.0000E+00  0.0000E+00  0.0000E+00  0.0000E+00  0.0000E+00  0.0000E+00  0.0000E+00  0.0000E+00  0.0000E+00  0.0000E+00  0.0000E+00  0.0000E+00  0.0000E+00  0.0000E+00  0.0000E+00  0.0000E+00  0.0000E+00  0.0000E+00  0.0000E+00  0.0000E+00  0.0000E+00  0.0000E+00
    -26.192  0.0000E+00  0.0000E+00  0.0000E+00  0.0000E+00  0.0000E+00  0.0000E+00  0.0000E+00  0.0000E+00  0.0000E+00  0.0000E+00  0.0000E+00  0.0000E+00  0.0000E+00  0.0000E+00  0.0000E+00  0.0000E+00  0.0000E+00  0.0000E+00  0.0000E+00  0.0000E+00  0.0000E+00  0.0000E+00  0.0000E+00  0.0000E+00  0.0000E+00  0.0000E+00  0.0000E+00  0.0000E+00  0.0000E+00  0.0000E+00  0.0000E+00  0.0000E+00